<tripinfos xmlns:xsi="http://www.w3.org/2001/XMLSchema-instance" xsi:noNamespaceSchemaLocation="http://sumo.dlr.de/xsd/tripinfo_file.xsd">
    <tripinfo id="ego" depart="0.00" departLane="gneE7_0" departPos="5.10" departSpeed="0.00" departDelay="0.00" arrival="47.00" arrivalLane="gneE8_0" arrivalPos="9.52" arrivalSpeed="17.96" duration="47.00" routeLength="523.68" waitingTime="1.00" waitingCount="1" stopTime="0.00" timeLoss="24.15" rerouteNo="1" devices="vehroute_ego tripinfo_ego routing_ego fcd_ego" vType="car" speedFactor="1.06" vaporized=""/>
    <tripinfo id="flow_1.0" depart="10.00" departLane="gneE7_0" departPos="5.10" departSpeed="20.64" departDelay="0.00" arrival="56.00" arrivalLane="gneE8_0" arrivalPos="9.52" arrivalSpeed="17.37" duration="46.00" routeLength="523.68" waitingTime="1.00" waitingCount="1" stopTime="0.00" timeLoss="19.83" rerouteNo="1" devices="vehroute_flow_1.0 tripinfo_flow_1.0 routing_flow_1.0 fcd_flow_1.0" vType="car" speedFactor="0.94" vaporized=""/>
    <tripinfo id="flow_2.0" depart="11.00" departLane="gneE7_0" departPos="5.10" departSpeed="19.01" departDelay="1.00" arrival="62.00" arrivalLane="gneE8_0" arrivalPos="9.52" arrivalSpeed="19.18" duration="51.00" routeLength="523.68" waitingTime="1.00" waitingCount="1" stopTime="0.00" timeLoss="26.80" rerouteNo="1" devices="vehroute_flow_2.0 tripinfo_flow_2.0 routing_flow_2.0 fcd_flow_2.0" vType="car" speedFactor="1.05" vaporized=""/>
    <tripinfo id="flow_3.0" depart="12.00" departLane="gneE7_0" departPos="5.10" departSpeed="17.45" departDelay="2.00" arrival="69.00" arrivalLane="gneE8_0" arrivalPos="9.52" arrivalSpeed="18.93" duration="57.00" routeLength="523.68" waitingTime="1.00" waitingCount="1" stopTime="0.00" timeLoss="32.33" rerouteNo="1" devices="vehroute_flow_3.0 tripinfo_flow_3.0 routing_flow_3.0 fcd_flow_3.0" vType="car" speedFactor="1.03" vaporized=""/>
    <tripinfo id="flow_1.1" depart="13.00" departLane="gneE7_0" departPos="5.10" departSpeed="14.92" departDelay="2.80" arrival="74.00" arrivalLane="gneE8_0" arrivalPos="9.52" arrivalSpeed="19.56" duration="61.00" routeLength="523.68" waitingTime="2.00" waitingCount="2" stopTime="0.00" timeLoss="35.11" rerouteNo="1" devices="vehroute_flow_1.1 tripinfo_flow_1.1 routing_flow_1.1 fcd_flow_1.1" vType="car" speedFactor="1.01" vaporized=""/>
    <tripinfo id="flow_2.1" depart="14.00" departLane="gneE7_0" departPos="5.10" departSpeed="13.14" departDelay="3.80" arrival="79.00" arrivalLane="gneE8_0" arrivalPos="9.52" arrivalSpeed="18.69" duration="65.00" routeLength="523.68" waitingTime="1.00" waitingCount="1" stopTime="0.00" timeLoss="36.49" rerouteNo="1" devices="vehroute_flow_2.1 tripinfo_flow_2.1 routing_flow_2.1 fcd_flow_2.1" vType="car" speedFactor="0.89" vaporized=""/>
    <tripinfo id="flow_3.1" depart="15.00" departLane="gneE7_0" departPos="5.10" departSpeed="11.25" departDelay="4.80" arrival="85.00" arrivalLane="gneE8_0" arrivalPos="9.52" arrivalSpeed="19.37" duration="70.00" routeLength="523.68" waitingTime="1.00" waitingCount="1" stopTime="0.00" timeLoss="45.25" rerouteNo="1" devices="vehroute_flow_3.1 tripinfo_flow_3.1 routing_flow_3.1 fcd_flow_3.1" vType="car" speedFactor="1.05" vaporized=""/>
    <tripinfo id="flow_1.2" depart="16.00" departLane="gneE7_0" departPos="5.10" departSpeed="9.40" departDelay="5.60" arrival="90.00" arrivalLane="gneE8_0" arrivalPos="9.52" arrivalSpeed="17.81" duration="74.00" routeLength="523.68" waitingTime="1.00" waitingCount="1" stopTime="0.00" timeLoss="51.08" rerouteNo="1" devices="vehroute_flow_1.2 tripinfo_flow_1.2 routing_flow_1.2 fcd_flow_1.2" vType="car" speedFactor="1.08" vaporized=""/>
    <tripinfo id="flow_2.2" depart="17.00" departLane="gneE7_0" departPos="5.10" departSpeed="5.55" departDelay="6.60" arrival="98.00" arrivalLane="gneE8_0" arrivalPos="9.52" arrivalSpeed="18.21" duration="81.00" routeLength="523.68" waitingTime="1.00" waitingCount="1" stopTime="0.00" timeLoss="53.41" rerouteNo="1" devices="vehroute_flow_2.2 tripinfo_flow_2.2 routing_flow_2.2 fcd_flow_2.2" vType="car" speedFactor="0.94" vaporized=""/>
    <tripinfo id="flow_3.2" depart="19.00" departLane="gneE7_0" departPos="5.10" departSpeed="7.34" departDelay="8.60" arrival="104.00" arrivalLane="gneE8_0" arrivalPos="9.52" arrivalSpeed="18.13" duration="85.00" routeLength="523.68" waitingTime="3.00" waitingCount="2" stopTime="0.00" timeLoss="62.78" rerouteNo="1" devices="vehroute_flow_3.2 tripinfo_flow_3.2 routing_flow_3.2 fcd_flow_3.2" vType="car" speedFactor="1.12" vaporized=""/>
    <tripinfo id="flow_1.3" depart="20.00" departLane="gneE7_0" departPos="5.10" departSpeed="4.19" departDelay="9.40" arrival="110.00" arrivalLane="gneE8_0" arrivalPos="9.52" arrivalSpeed="18.06" duration="90.00" routeLength="523.68" waitingTime="3.00" waitingCount="3" stopTime="0.00" timeLoss="64.92" rerouteNo="1" devices="vehroute_flow_1.3 tripinfo_flow_1.3 routing_flow_1.3 fcd_flow_1.3" vType="car" speedFactor="1.03" vaporized=""/>
    <tripinfo id="flow_2.3" depart="22.00" departLane="gneE7_0" departPos="5.10" departSpeed="5.01" departDelay="11.40" arrival="116.00" arrivalLane="gneE8_0" arrivalPos="9.52" arrivalSpeed="18.58" duration="94.00" routeLength="523.68" waitingTime="2.00" waitingCount="2" stopTime="0.00" timeLoss="63.79" rerouteNo="1" devices="vehroute_flow_2.3 tripinfo_flow_2.3 routing_flow_2.3 fcd_flow_2.3" vType="car" speedFactor="0.86" vaporized=""/>
    <tripinfo id="flow_1.10" depart="65.00" departLane="gneE7_0" departPos="5.10" departSpeed="4.38" departDelay="53.00" arrival="119.00" arrivalLane="gneE8_0" arrivalPos="9.52" arrivalSpeed="17.18" duration="54.00" routeLength="526.86" waitingTime="2.00" waitingCount="2" stopTime="0.00" timeLoss="32.18" rerouteNo="1" devices="vehroute_flow_1.10 tripinfo_flow_1.10 routing_flow_1.10 fcd_flow_1.10" vType="car" speedFactor="1.15" vaporized=""/>
    <tripinfo id="flow_3.3" depart="24.00" departLane="gneE7_0" departPos="5.10" departSpeed="5.15" departDelay="13.40" arrival="121.00" arrivalLane="gneE8_0" arrivalPos="9.52" arrivalSpeed="18.71" duration="97.00" routeLength="523.68" waitingTime="3.00" waitingCount="2" stopTime="0.00" timeLoss="71.24" rerouteNo="1" devices="vehroute_flow_3.3 tripinfo_flow_3.3 routing_flow_3.3 fcd_flow_3.3" vType="car" speedFactor="0.99" vaporized=""/>
    <tripinfo id="flow_2.10" depart="67.00" departLane="gneE7_0" departPos="5.10" departSpeed="5.26" departDelay="55.00" arrival="125.00" arrivalLane="gneE8_0" arrivalPos="9.52" arrivalSpeed="17.52" duration="58.00" routeLength="526.86" waitingTime="2.00" waitingCount="2" stopTime="0.00" timeLoss="32.12" rerouteNo="1" devices="vehroute_flow_2.10 tripinfo_flow_2.10 routing_flow_2.10 fcd_flow_2.10" vType="car" speedFactor="0.97" vaporized=""/>
</tripinfos>
