<?xml version="1.0" encoding="UTF-8"?>

<!-- generated on Wed Sep  4 16:13:56 2019 by Eclipse SUMO Version 1.1.0
<configuration xmlns:xsi="http://www.w3.org/2001/XMLSchema-instance" xsi:noNamespaceSchemaLocation="http://sumo.dlr.de/xsd/sumoConfiguration.xsd">

    <input>
        <net-file value="map/mtv_filtered_typed_trimed.net.xml"/>
        <route-files value="arterial.rou.xml"/>
    </input>

    <output>
        <fcd-output value="arterial.fcd.xml"/>
        <fcd-output.signals value="true"/>
        <summary-output value="summary.xml"/>
        <tripinfo-output value="tripinfo.xml"/>
        <vehroute-output value="vehicle_route.xml"/>
        <vehroute-output.cost value="true"/>
        <vehroute-output.route-length value="true"/>
        <lanechange-output value="lane_change.xml"/>
        <lanechange-output.started value="true"/>
        <lanechange-output.ended value="true"/>
    </output>

</configuration>
-->

<routes xmlns:xsi="http://www.w3.org/2001/XMLSchema-instance" xsi:noNamespaceSchemaLocation="http://sumo.dlr.de/xsd/routes_file.xsd">

    <vehicle id="394369030_to_706447588#1_27_0.0" depart="0.00" departLane="0" departPos="5.10" departSpeed="33.93" arrival="98.00" routeLength="4009.58">
        <route cost="-1.00" savings="0.00" edges="394369030 617235580 685973438#0 685973438#1 515733343 509747378 509747390 509747381 698785579 699010686 699013843 699542381 699542819 617259178#0 617259178#1 706445267 706447588#0 706447588#1"/>
    </vehicle>

    <vehicle id="367132267#0_to_392017177#1_4_0.4" depart="16.00" departLane="0" departPos="5.10" departSpeed="48.69" arrival="104.00" routeLength="4173.99">
        <route cost="-1.00" savings="0.00" edges="367132267#0 367132267#1 30637721 30637720 123555213#0 123555213#1 11477573 11477571 394387884 699542385 394387883 361615811 699541213 699010691 509747406 699541206 617235581 509747399 392017177#0 392017177#1"/>
    </vehicle>

    <vehicle id="367132267#0_to_392017177#1_4_0.2" depart="8.00" departLane="1" departPos="5.10" departSpeed="44.40" arrival="104.00" routeLength="4173.99">
        <route cost="-1.00" savings="0.00" edges="367132267#0 367132267#1 30637721 30637720 123555213#0 123555213#1 11477573 11477571 394387884 699542385 394387883 361615811 699541213 699010691 509747406 699541206 617235581 509747399 392017177#0 392017177#1"/>
    </vehicle>

    <vehicle id="394369030_to_5018655_28_0.0" depart="1.00" departLane="0" departPos="5.10" departSpeed="29.95" arrival="105.00" routeLength="3674.69">
        <route cost="-1.00" savings="0.00" edges="394369030 617235580 685973438#0 685973438#1 515733343 509747378 509747390 8924268 698785578 699010687 699013844 699542380#0 699542380#1 11479094 5066724 5018655"/>
    </vehicle>

    <vehicle id="23926336#1_to_417099919_39_0.0" depart="0.00" departLane="1" departPos="5.10" departSpeed="26.15" arrival="107.00" routeLength="2144.82">
        <route cost="-1.00" savings="0.00" edges="23926336#1 23926336#2 23926336#3 23926336#4 23926336#5 23926336#6 23926336#7 23926336#8 417923804 417923805 417104427#0 417104427#1 417104427#2 417104427#3 708063781#0 708063781#1 417104432#0 417104432#1 417104432#2 417104432#3 417104432#4 417099903#0 417099903#1 417099916#0 417099916#1 417099916#2 417099916#3 417099916#4 417099916#5 417099906#0 417099906#1 417099917#0 417099917#1 417099917#2 417099917#3 417099917#4 417099900#0 417099900#1 417099919"/>
    </vehicle>

    <vehicle id="367132267#0_to_392017177#1_4_0.3" depart="12.00" departLane="0" departPos="5.10" departSpeed="45.04" arrival="107.00" routeLength="4173.99">
        <route cost="-1.00" savings="0.00" edges="367132267#0 367132267#1 30637721 30637720 123555213#0 123555213#1 11477573 11477571 394387884 699542385 394387883 361615811 699541213 699010691 509747406 699541206 617235581 509747399 392017177#0 392017177#1"/>
    </vehicle>

    <vehicle id="367132267#0_to_392017177#1_4_0.5" depart="20.00" departLane="1" departPos="5.10" departSpeed="48.23" arrival="109.00" routeLength="4173.99">
        <route cost="-1.00" savings="0.00" edges="367132267#0 367132267#1 30637721 30637720 123555213#0 123555213#1 11477573 11477571 394387884 699542385 394387883 361615811 699541213 699010691 509747406 699541206 617235581 509747399 392017177#0 392017177#1"/>
    </vehicle>

    <vehicle id="496843443#0_to_5018655_25_0.0" depart="0.00" departLane="0" departPos="5.10" departSpeed="29.09" arrival="113.00" routeLength="3426.55">
        <route cost="-1.00" savings="0.00" edges="496843443#0 496843443#1 496843443#2 496843443#3 496843443#4 496843443#5 496843443#6 496843443#7 496843443#8 417103952#0 417103952#1 417103969#0 417103969#1 417103969#2 417103969#3 417103969#4 5012269#0 5012269#1 417103946#0 417103946#1 124769659#0 124769659#1 124769659#2 124769659#3 124769659#4 124769659#5 520418777 264271356 23725175 11475392 348360455 496843455 700939307 698785575 699541218 698785580 509747374 699010688 699013845 699542379 699542380#1 11479094 5066724 5018655"/>
    </vehicle>

    <vehicle id="27628577#0_to_392017177#1_1_0.1" depart="4.00" departLane="1" departPos="5.10" departSpeed="40.51" arrival="116.00" routeLength="4438.11">
        <route cost="-1.00" savings="0.00" edges="27628577#0 27628577#1 706447587 706445268#0 706445268#1 706445269 617335302 699542384 699013847 361615811 699541213 699010691 509747406 699541206 617235581 509747399 392017177#0 392017177#1"/>
    </vehicle>

    <vehicle id="27628577#0_to_392017177#1_1_0.7" depart="30.00" departLane="0" departPos="5.10" departSpeed="50.18" arrival="118.00" routeLength="4438.11">
        <route cost="-1.00" savings="0.00" edges="27628577#0 27628577#1 706447587 706445268#0 706445268#1 706445269 617335302 699542384 699013847 361615811 699541213 699010691 509747406 699541206 617235581 509747399 392017177#0 392017177#1"/>
    </vehicle>

    <vehicle id="27628577#0_to_392017177#1_1_0.3" depart="13.00" departLane="3" departPos="5.10" departSpeed="42.99" arrival="118.00" routeLength="4438.11">
        <route cost="-1.00" savings="0.00" edges="27628577#0 27628577#1 706447587 706445268#0 706445268#1 706445269 617335302 699542384 699013847 361615811 699541213 699010691 509747406 699541206 617235581 509747399 392017177#0 392017177#1"/>
    </vehicle>

    <vehicle id="700010432_to_5018655_3_0.2" depart="8.00" departLane="2" departPos="5.10" departSpeed="50.99" arrival="120.00" routeLength="5292.57">
        <route cost="-1.00" savings="0.00" edges="700010432 617235580 685973438#0 685973438#1 515733343 509747378 509747390 8924268 698785578 699010687 699013844 699542380#0 699542380#1 11479094 5066724 5018655"/>
    </vehicle>

    <vehicle id="27628577#0_to_392017177#1_1_0.5" depart="21.00" departLane="2" departPos="5.10" departSpeed="45.84" arrival="120.00" routeLength="4438.11">
        <route cost="-1.00" savings="0.00" edges="27628577#0 27628577#1 706447587 706445268#0 706445268#1 706445269 617335302 699542384 699013847 361615811 699541213 699010691 509747406 699541206 617235581 509747399 392017177#0 392017177#1"/>
    </vehicle>

    <vehicle id="367132267#0_to_392017177#1_4_0.6" depart="24.00" departLane="0" departPos="5.10" departSpeed="44.06" arrival="121.00" routeLength="4173.99">
        <route cost="-1.00" savings="0.00" edges="367132267#0 367132267#1 30637721 30637720 123555213#0 123555213#1 11477573 11477571 394387884 699542385 394387883 361615811 699541213 699010691 509747406 699541206 617235581 509747399 392017177#0 392017177#1"/>
    </vehicle>

    <vehicle id="700010432_to_5018655_3_0.0" depart="0.00" departLane="1" departPos="5.10" departSpeed="44.63" arrival="123.00" routeLength="5292.57">
        <route cost="-1.00" savings="0.00" edges="700010432 617235580 685973438#0 685973438#1 515733343 509747378 509747390 8924268 698785578 699010687 699013844 699542380#0 699542380#1 11479094 5066724 5018655"/>
    </vehicle>

    <vehicle id="700010432_to_706447588#1_2_0.2" depart="11.00" departLane="1" departPos="5.10" departSpeed="51.76" arrival="124.00" routeLength="5627.46">
        <route cost="-1.00" savings="0.00" edges="700010432 617235580 685973438#0 685973438#1 515733343 509747378 509747390 509747381 698785579 699010686 699013843 699542381 699542819 617259178#0 617259178#1 706445267 706447588#0 706447588#1"/>
    </vehicle>

    <vehicle id="700010432_to_5018655_3_0.4" depart="16.00" departLane="2" departPos="5.10" departSpeed="52.11" arrival="128.00" routeLength="5292.57">
        <route cost="-1.00" savings="0.00" edges="700010432 617235580 685973438#0 685973438#1 515733343 509747378 509747390 8924268 698785578 699010687 699013844 699542380#0 699542380#1 11479094 5066724 5018655"/>
    </vehicle>

    <vehicle id="27628577#0_to_416990277#5_2_0.0" depart="1.00" departLane="0" departPos="5.10" departSpeed="45.43" arrival="129.00" routeLength="2407.60">
        <route cost="-1.00" savings="0.00" edges="27628577#0 394385426 11478346 394385427#0 394385427#1 90088570 523596342 90088575 417105053 417105035#0 417105035#1 90088565 676976463#0 676976463#1 416990330 416990277#0 416990277#1 416990277#2 416990277#3 416990277#4 416990277#5"/>
    </vehicle>

    <vehicle id="27628577#0_to_392017177#1_1_0.4" depart="17.00" departLane="1" departPos="5.10" departSpeed="39.78" arrival="131.00" routeLength="4438.11">
        <route cost="-1.00" savings="0.00" edges="27628577#0 27628577#1 706447587 706445268#0 706445268#1 706445269 617335302 699542384 699013847 361615811 699541213 699010691 509747406 699541206 617235581 509747399 392017177#0 392017177#1"/>
    </vehicle>

    <vehicle id="496843443#0_to_416943886#2_45_0.0" depart="1.00" departLane="0" departPos="5.10" departSpeed="27.25" arrival="132.00" routeLength="2257.95">
        <route cost="-1.00" savings="0.00" edges="496843443#0 496843443#1 496843443#2 496843443#3 496843443#4 496843443#5 496843443#6 496843443#7 496843443#8 417103952#0 417103952#1 417103969#0 417103969#1 417103969#2 417103969#3 417103969#4 5012269#0 5012269#1 417103946#0 417103946#1 124769659#0 124769659#1 124769659#2 124769659#3 124769659#4 124769659#5 520418777 264271356 23725175 23725176 4368969#0 4368969#1 145470499 145470501 417103944#0 417103944#1 -417103955#1 -417103955#0 -496364807#5 -496364807#4 -496364807#3 -496364807#2 -496364807#1 -496364807#0 -691273309#1 -691273309#0 -708063780#1 -708063780#0 -496364808#3 -496364808#2 -496364808#1 -496364808#0 417103962 -417103960#6 -417103960#5 -417103960#4 -417103960#3 -417103960#2 -417103960#1 -417103960#0 -496364805#7 -496364805#6 -496364805#5 -496364805#4 -496364805#3 -496364805#2 -496364805#1 -496364805#0 496364806#0 496364806#1 416943891#0 416943891#1 416943891#2 416943891#3 416943886#0 416943886#1 416943886#2"/>
    </vehicle>

    <vehicle id="367132267#0_to_392017177#1_4_0.10" depart="41.00" departLane="0" departPos="5.10" departSpeed="49.44" arrival="133.00" routeLength="4173.99">
        <route cost="-1.00" savings="0.00" edges="367132267#0 367132267#1 30637721 30637720 123555213#0 123555213#1 11477573 11477571 394387884 699542385 394387883 361615811 699541213 699010691 509747406 699541206 617235581 509747399 392017177#0 392017177#1"/>
    </vehicle>

    <vehicle id="367132267#0_to_392017177#1_4_0.9" depart="37.00" departLane="0" departPos="5.10" departSpeed="50.46" arrival="134.00" routeLength="4173.99">
        <route cost="-1.00" savings="0.00" edges="367132267#0 367132267#1 30637721 30637720 123555213#0 123555213#1 11477573 11477571 394387884 699542385 394387883 361615811 699541213 699010691 509747406 699541206 617235581 509747399 392017177#0 392017177#1"/>
    </vehicle>

    <vehicle id="700010432_to_5018655_3_0.1" depart="4.00" departLane="3" departPos="5.10" departSpeed="41.91" arrival="135.00" routeLength="5292.57">
        <route cost="-1.00" savings="0.00" edges="700010432 617235580 685973438#0 685973438#1 515733343 509747378 509747390 8924268 698785578 699010687 699013844 699542380#0 699542380#1 11479094 5066724 5018655"/>
    </vehicle>

    <vehicle id="367132267#0_to_392017177#1_4_0.8" depart="33.00" departLane="0" departPos="5.10" departSpeed="48.40" arrival="135.00" routeLength="4173.99">
        <route cost="-1.00" savings="0.00" edges="367132267#0 367132267#1 30637721 30637720 123555213#0 123555213#1 11477573 11477571 394387884 699542385 394387883 361615811 699541213 699010691 509747406 699541206 617235581 509747399 392017177#0 392017177#1"/>
    </vehicle>

    <vehicle id="27628577#0_to_392017177#1_1_0.8" depart="34.00" departLane="0" departPos="5.10" departSpeed="44.31" arrival="136.00" routeLength="4438.11">
        <route cost="-1.00" savings="0.00" edges="27628577#0 27628577#1 706447587 706445268#0 706445268#1 706445269 617335302 699542384 699013847 361615811 699541213 699010691 509747406 699541206 617235581 509747399 392017177#0 392017177#1"/>
    </vehicle>

    <vehicle id="700010432_to_5018655_3_0.3" depart="12.00" departLane="1" departPos="5.10" departSpeed="43.94" arrival="137.00" routeLength="5292.57">
        <route cost="-1.00" savings="0.00" edges="700010432 617235580 685973438#0 685973438#1 515733343 509747378 509747390 8924268 698785578 699010687 699013844 699542380#0 699542380#1 11479094 5066724 5018655"/>
    </vehicle>

</routes>
